<UPF version="2.0.1">
<PP_INFO>
Generated using FHI98PP, converted with fhi2upf.x v.5.0.2
Origin: Abinit web site
Date: 08-Sep-2012 (PG)
Pseudopotential type: SL
Element: Pt
Functional: PBE

Suggested minimum cutoff for wavefunctions:   0. Ry
Suggested minimum cutoff for charge density:   0. Ry
The Pseudo was generated with a Non-Relativistic Calculation
L component and cutoff radius for Local Potential:  1   0.0000

Valence configuration:
nl pn  l   occ       Rcut    Rcut US       E pseu
6s  6  0  1.00      0.000      0.000     0.000000
6p  6  1  0.00      0.000      0.000     0.000000
5d  5  2  9.00      0.000      0.000     0.000000
5f  5  3  0.00      0.000      0.000     0.000000

Generation configuration: not available.
Comment:
platinum, fhi98PP : Trouiller-Martins-type, GGA Perdew/Burke/Ernzerhof (1996), l
</PP_INFO>
<!--                               -->
<!-- END OF HUMAN READABLE SECTION -->
<!--                               -->
<PP_HEADER generated="Generated using FHI98PP, converted with fhi2upf.x v.5.0.2"
author="unknown"
date="unknown"
comment="platinum, fhi98PP : Trouiller-Martins-type, GGA Perdew/Burke/Ernzerhof (1996), l"
element="Pt"
pseudo_type="SL"
relativistic="no"
is_ultrasoft="F"
is_paw="F"
is_coulomb="F"
has_so="F"
has_wfc="F"
has_gipaw="F"
paw_as_gipaw="F"
core_correction="F"
functional="PBE"
z_valence="1.000000000000000E+001"
total_psenergy="0.000000000000000E+000"
wfc_cutoff="0.000000000000000E+000"
rho_cutoff="0.000000000000000E+000"
l_max="3"
l_max_rho="0"
l_local="1"
mesh_size="567"
number_of_wfc="4"
number_of_proj="3"/>
<PP_MESH dx="2.439988682353512E-002" mesh="567" xmin="-5.075173815233828E+000" rmax="7.971464338284200E+001"
zmesh="7.800000000000000E+001">
<PP_R type="real" size="567" columns="4">
8.012820512820501E-005  8.210737179487199E-005  8.413542387820500E-005  8.621356884799700E-005
8.834304399854200E-005  9.052511718530601E-005  9.276108757978300E-005  9.505228644300400E-005
9.740007791814600E-005  9.980585984272400E-005  1.022710645808400E-004  1.047971598759900E-004
1.073856497249200E-004  1.100380752731300E-004  1.127560157323800E-004  1.155410893209600E-004
1.183949542271900E-004  1.213193095966000E-004  1.243158965436400E-004  1.273864991882700E-004
1.305329457182200E-004  1.337571094774600E-004  1.370609100815500E-004  1.404463145605700E-004
1.439153385302100E-004  1.474700473919100E-004  1.511125575624900E-004  1.548450377342800E-004
1.586697101663200E-004  1.625888520074300E-004  1.666047966520100E-004  1.707199351293100E-004
1.749367175270100E-004  1.792576544499300E-004  1.836853185148400E-004  1.882223458821600E-004
1.928714378254400E-004  1.976353623397300E-004  2.025169557895200E-004  2.075191245975300E-004
2.126448469750800E-004  2.178971746953700E-004  2.232792349103500E-004  2.287942320126300E-004
2.344454495433400E-004  2.402362521470600E-004  2.461700875751000E-004  2.522504887382000E-004
2.584810758100300E-004  2.648655583825400E-004  2.714077376745900E-004  2.781115087951500E-004
2.849808630623900E-004  2.920198903800300E-004  2.992327816724200E-004  3.066238313797300E-004
3.141974400148100E-004  3.219581167831700E-004  3.299104822677200E-004  3.380592711797300E-004
3.464093351778700E-004  3.549656457567600E-004  3.637332972069600E-004  3.727175096479700E-004
3.819236321362700E-004  3.913571458500400E-004  4.010236673525400E-004  4.109289519361400E-004
4.210788970489700E-004  4.314795458060800E-004  4.421370905874900E-004  4.530578767250000E-004
4.642484062801000E-004  4.757153419152200E-004  4.874655108605300E-004  4.995059089787800E-004
5.118437049305600E-004  5.244862444423400E-004  5.374410546800700E-004  5.507158487306700E-004
5.643185301943100E-004  5.782571978901100E-004  5.925401506780000E-004  6.071758923997500E-004
6.221731369420200E-004  6.375408134244900E-004  6.532880715160700E-004  6.694242868825200E-004
6.859590667685199E-004  7.029022557177000E-004  7.202639414339300E-004  7.380544607873500E-004
7.562844059687900E-004  7.749646307962200E-004  7.941062571768900E-004  8.137206817291600E-004
8.338195825678700E-004  8.544149262572900E-004  8.755189749358500E-004  8.971442936167600E-004
9.193037576691000E-004  9.420105604835300E-004  9.652782213274700E-004  9.891205933942600E-004
1.013551872051100E-003  1.038586603290800E-003  1.064239692392000E-003  1.090526412794100E-003
1.117462415190100E-003  1.145063736845300E-003  1.173346811145400E-003  1.202328477380700E-003
1.232025990772000E-003  1.262457032744100E-003  1.293639721452900E-003  1.325592622572700E-003
1.358334760350300E-003  1.391885628930900E-003  1.426265203965500E-003  1.461493954503500E-003
1.497592855179700E-003  1.534583398702700E-003  1.572487608650600E-003  1.611328052584300E-003
1.651127855483100E-003  1.691910713513500E-003  1.733700908137300E-003  1.776523320568300E-003
1.820403446586400E-003  1.865367411717000E-003  1.911441986786500E-003  1.958654603860100E-003
2.007033372575400E-003  2.056607096878000E-003  2.107405292170900E-003  2.159458202887500E-003
2.212796820498900E-003  2.267452901965200E-003  2.323458988643700E-003  2.380848425663200E-003
2.439655381777100E-003  2.499914869707000E-003  2.561662766988800E-003  2.624935837333400E-003
2.689771752515500E-003  2.756209114802700E-003  2.824287479938300E-003  2.894047380692800E-003
2.965530350995900E-003  3.038778950665500E-003  3.113836790746900E-003  3.190748559478400E-003
3.269560048897500E-003  3.350318182105200E-003  3.433071041203200E-003  3.517867895921000E-003
3.604759232950200E-003  3.693796786004100E-003  3.785033566618400E-003  3.878523895713800E-003
3.974323435938000E-003  4.072489224805600E-003  4.173079708658300E-003  4.276154777462200E-003
4.381775800465500E-003  4.490005662737000E-003  4.600908802606600E-003  4.714551250031000E-003
4.831000665906800E-003  4.950326382354700E-003  5.072599443998800E-003  5.197892650265600E-003
5.326280598727200E-003  5.457839729515700E-003  5.592648370834800E-003  5.730786785594400E-003
5.872337219198600E-003  6.017383948512800E-003  6.166013332041000E-003  6.318313861342400E-003
6.474376213717600E-003  6.634293306196400E-003  6.798160350859500E-003  6.966074911525700E-003
7.138136961840400E-003  7.314448944797900E-003  7.495115833734400E-003  7.680245194827600E-003
7.869947251139800E-003  8.064334948242999E-003  8.263524021464600E-003  8.467633064794800E-003
8.676783601495200E-003  8.891100156452100E-003  9.110710330316499E-003  9.335744875475300E-003
9.566337773899499E-003  9.802626316914901E-003  1.004475118694300E-002  1.029285654126000E-002
1.054709009782900E-002  1.080760322324600E-002  1.107455102286000E-002  1.134809243312400E-002
1.162839031622300E-002  1.191561155703300E-002  1.220992716249200E-002  1.251151236340600E-002
1.282054671878200E-002  1.313721422273600E-002  1.346170341403700E-002  1.379420748836400E-002
1.413492441332700E-002  1.448405704633600E-002  1.484181325538000E-002  1.520840604278800E-002
1.558405367204500E-002  1.596897979774400E-002  1.636341359874900E-002  1.676758991463800E-002
1.718174938552900E-002  1.760613859535200E-002  1.804101021865700E-002  1.848662317105800E-002
1.894324276338300E-002  1.941114085963900E-002  1.989059603887200E-002  2.038189376103200E-002
2.088532653692900E-002  2.140119410239100E-002  2.192980359672100E-002  2.247146974556000E-002
2.302651504827500E-002  2.359526996996700E-002  2.417807313822500E-002  2.477527154474000E-002
2.538722075189500E-002  2.601428510446600E-002  2.665683794654700E-002  2.731526184382700E-002
2.798994881136900E-002  2.868130054701000E-002  2.938972867052100E-002  3.011565496868300E-002
3.085951164640900E-002  3.162174158407600E-002  3.240279860120200E-002  3.320314772665200E-002
3.402326547550000E-002  3.486364013274500E-002  3.572477204402400E-002  3.660717391351100E-002
3.751137110917500E-002  3.843790197557200E-002  3.938731815436800E-002  4.036018491278100E-002
4.135708148012700E-002  4.237860139268600E-002  4.342535284708500E-002  4.449795906240800E-002
4.559705865125000E-002  4.672330599993600E-002  4.787737165813400E-002  4.905994273809000E-002
5.027172332372100E-002  5.151343488981700E-002  5.278581673159500E-002  5.408962640486600E-002
5.542564017706600E-002  5.679465348943900E-002  5.819748143062800E-002  5.963495922196500E-002
6.110794271474700E-002  6.261730889980199E-002  6.416395642962699E-002  6.574880615343900E-002
6.737280166542900E-002  6.903690986656499E-002  7.074212154026900E-002  7.248945194231300E-002
7.427994140528900E-002  7.611465595799900E-002  7.799468796016200E-002  7.992115675277800E-002
8.189520932457101E-002  8.391802099488800E-002  8.599079611346200E-002  8.811476877746401E-002
9.029120356626801E-002  9.252139629435500E-002  9.480667478282501E-002  9.714839964996100E-002
9.954796512131500E-002  1.020067998598100E-001  1.045263678163500E-001  1.071081691014100E-001
1.097537408782200E-001  1.124646582779100E-001  1.152425353373700E-001  1.180890259602100E-001
1.210058249014200E-001  1.239946687764900E-001  1.270573370952700E-001  1.301956533215200E-001
1.334114859585600E-001  1.367067496617400E-001  1.400834063783800E-001  1.435434665159300E-001
1.470889901388700E-001  1.507220881953000E-001  1.544449237737300E-001  1.582597133909400E-001
1.621687283117000E-001  1.661742959009900E-001  1.702788010097500E-001  1.744846873946900E-001
1.787944591733400E-001  1.832106823149200E-001  1.877359861681000E-001  1.923730650264500E-001
1.971246797326000E-001  2.019936593220000E-001  2.069829027072500E-001  2.120953804041200E-001
2.173341363001000E-001  2.227022894667200E-001  2.282030360165400E-001  2.338396510061500E-001
2.396154903860000E-001  2.455339929985400E-001  2.515986826256000E-001  2.578131700864600E-001
2.641811553875900E-001  2.707064299256600E-001  2.773928787448300E-001  2.842444828498300E-001
2.912653215762200E-001  2.984595750191500E-001  3.058315265221200E-001  3.133855652272200E-001
3.211261886883300E-001  3.290580055489300E-001  3.371857382859900E-001  3.455142260216500E-001
3.540484274043900E-001  3.627934235612800E-001  3.717544211232400E-001  3.809367553249900E-001
3.903458931815100E-001  3.999874367431000E-001  4.098671264306500E-001  4.199908444534900E-001
4.303646183114900E-001  4.409946243837800E-001  4.518871916060600E-001  4.630488052387300E-001
4.744861107281300E-001  4.862059176631100E-001  4.982152038293900E-001  5.105211193639800E-001
5.231309910122700E-001  5.360523264902700E-001  5.492928189545800E-001  5.628603515827600E-001
5.767630022668500E-001  5.910090484228400E-001  6.056069719188900E-001  6.205654641252900E-001
6.358934310891800E-001  6.515999988370800E-001  6.676945188083599E-001  6.841865734229200E-001
7.010859817864700E-001  7.184028055366000E-001  7.361473548333500E-001  7.543301944977300E-001
7.729621503018300E-001  7.920543154142800E-001  8.116180570050200E-001  8.316650230130400E-001
8.522071490814600E-001  8.732566656637700E-001  8.948261053056700E-001  9.169283101067200E-001
9.395764393663500E-001  9.627839774187000E-001  9.865647416609500E-001  1.010932890780000E+000
1.035902933182200E+000  1.061489735631800E+000  1.087708532101900E+000  1.114574932844900E+000
1.142104933686100E+000  1.170314925548200E+000  1.199221704209200E+000  1.228842480303200E+000
1.259194889566700E+000  1.290297003339000E+000  1.322167339321400E+000  1.354824872602700E+000
1.388289046956000E+000  1.422579786415800E+000  1.457717507140300E+000  1.493723129566600E+000
1.530618090866900E+000  1.568424357711300E+000  1.607164439346800E+000  1.646861400998700E+000
1.687538877603300E+000  1.729221087880100E+000  1.771932848750800E+000  1.815699590114900E+000
1.860547369990700E+000  1.906502890029500E+000  1.953593511413200E+000  2.001847271145200E+000
2.051292898742400E+000  2.101959833341400E+000  2.153878241224900E+000  2.207079033783200E+000
2.261593885917600E+000  2.317455254899800E+000  2.374696399695800E+000  2.433351400768300E+000
2.493455180367300E+000  2.555043523322300E+000  2.618153098348400E+000  2.682821479877600E+000
2.749087170430600E+000  2.816989623540200E+000  2.886569267241700E+000  2.957867528142500E+000
3.030926856087600E+000  3.105790749433000E+000  3.182503780944000E+000  3.261111624333300E+000
3.341661081454300E+000  3.424200110166300E+000  3.508777852887400E+000  3.595444665853700E+000
3.684252149100300E+000  3.775253177183100E+000  3.868501930659500E+000  3.964053928346800E+000
4.061966060376900E+000  4.162296622068200E+000  4.265105348633300E+000  4.370453450744600E+000
4.478403650978000E+000  4.589020221157100E+000  4.702369020619700E+000  4.818517535429000E+000
4.937534918554100E+000  5.059492031042400E+000  5.184461484209100E+000  5.312517682869100E+000
5.443736869636000E+000  5.578197170316000E+000  5.715978640422800E+000  5.857163312841200E+000
6.001835246668400E+000  6.150080577261100E+000  6.301987567519500E+000  6.457646660437200E+000
6.617150532950000E+000  6.780594151113900E+000  6.948074826646400E+000  7.119692274864500E+000
7.295548674053700E+000  7.475748726302800E+000  7.660399719842500E+000  7.849611592922600E+000
8.043496999267800E+000  8.242171375149701E+000  8.445753008115901E+000  8.654363107416399E+000
8.868125876169501E+000  9.087168585310900E+000  9.311621649368099E+000  9.541618704107499E+000
9.777296686098900E+000  1.001879591424600E+001  1.026626017332700E+001  1.051983679960900E+001
1.077967676855900E+001  1.104593478474200E+001  1.131876937392600E+001  1.159834297746100E+001
1.188482204900500E+001  1.217837715361500E+001  1.247918306930900E+001  1.278741889112100E+001
1.310326813773200E+001  1.342691886073400E+001  1.375856375659400E+001  1.409840028138200E+001
1.444663076833200E+001  1.480346254831000E+001  1.516910807325300E+001  1.554378504266300E+001
1.592771653321600E+001  1.632113113158700E+001  1.672426307053700E+001  1.713735236837900E+001
1.756064497187800E+001  1.799439290268400E+001  1.843885440738000E+001  1.889429411124200E+001
1.936098317579000E+001  1.983919946023200E+001  2.032922768690000E+001  2.083135961076600E+001
2.134589419315200E+001  2.187313777972300E+001  2.241340428288200E+001  2.296701536866900E+001
2.353430064827500E+001  2.411559787428800E+001  2.471125314178300E+001  2.532162109438500E+001
2.594706513541600E+001  2.658795764426100E+001  2.724468019807400E+001  2.791762379896600E+001
2.860718910680100E+001  2.931378667773900E+001  3.003783720867900E+001  3.077977178773300E+001
3.154003215089000E+001  3.231907094501700E+001  3.311735199735900E+001  3.393535059169400E+001
3.477355375130900E+001  3.563246052896600E+001  3.651258230403200E+001  3.741444308694100E+001
3.833857983118900E+001  3.928554275301900E+001  4.025589565901900E+001  4.125021628179700E+001
4.226909662395700E+001  4.331314331056900E+001  4.438297795034000E+001  4.547923750571300E+001
4.660257467210400E+001  4.775365826650500E+001  4.893317362568800E+001  5.014182301424200E+001
5.138032604269400E+001  5.264942009594900E+001  5.394986077231900E+001  5.528242233339500E+001
5.664789816503000E+001  5.804710124970600E+001  5.948086465057400E+001  6.095004200744300E+001
6.245550804502700E+001  6.399815909373900E+001  6.557891362335400E+001  6.719871278985100E+001
6.885852099576000E+001  7.055932646435600E+001  7.230214182802500E+001  7.408800473117699E+001
7.591797844803700E+001  7.779315251570399E+001  7.971464338284200E+001
</PP_R>
<PP_RAB type="real" size="567" columns="4">
1.955119136501209E-006  2.003410579172797E-006  2.052894820478356E-006  2.103601322544180E-006
2.155560275211008E-006  2.208802614008721E-006  2.263360038574735E-006  2.319265031527539E-006
2.376550877806265E-006  2.435251684488074E-006  2.495402401094947E-006  2.557038840402072E-006
2.620197699759834E-006  2.684916582944011E-006  2.751234022542818E-006  2.819189502899386E-006
2.888823483621057E-006  2.960177423666459E-006  3.033293806031117E-006  3.108216163040136E-006
3.184989102267222E-006  3.263658333093221E-006  3.344270693920544E-006  3.426874180060521E-006
3.511517972307867E-006  3.598252466223964E-006  3.687129302139692E-006  3.778201395902457E-006
3.871522970381328E-006  3.967149587749793E-006  4.065138182567128E-006  4.165547095676422E-006
4.268436108939777E-006  4.373866480830659E-006  4.481900982907096E-006  4.592603937184986E-006
4.706041254433227E-006  4.822280473417768E-006  4.941390801111154E-006  5.063443153898815E-006
5.188510199799897E-006  5.316666401735089E-006  5.447988061858052E-006  5.582553366985808E-006
5.720442435150310E-006  5.861737363298510E-006  6.006522276172169E-006  6.154883376393501E-006
6.306908995790334E-006  6.462689647986410E-006  6.622318082291706E-006  6.785889338924252E-006
6.953500805595677E-006  7.125252275493864E-006  7.301246006698643E-006  7.481586783064129E-006
7.666381976605830E-006  7.855741611427852E-006  8.049778429230258E-006  8.248607956432181E-006
8.452348572956071E-006  8.661121582708005E-006  8.875051285801087E-006  9.094265052560327E-006
9.318893399358449E-006  9.549070066322703E-006  9.784932096960972E-006  1.002661991975572E-005
1.027427743177387E-005  1.052805208433869E-005  1.078809497082185E-005  1.105456091660113E-005
1.132760857124099E-005  1.160740050295068E-005  1.189410329537366E-005  1.218788764676927E-005
1.248892847164457E-005  1.279740500489407E-005  1.311350090851506E-005  1.343740438095544E-005
1.376930826916485E-005  1.410941018341324E-005  1.445791261494365E-005  1.481502305653284E-005
1.518095412602911E-005  1.555592369294208E-005  1.594015500815763E-005  1.633387683685919E-005
1.673732359472966E-005  1.715073548751942E-005  1.757435865406122E-005  1.800844531281658E-005
1.845325391204297E-005  1.890904928367045E-005  1.937610280097719E-005  1.985469254016135E-005
2.034510344590332E-005  2.084762750101698E-005  2.136256390029222E-005  2.189021922862931E-005
2.243090764357660E-005  2.298495106237302E-005  2.355267935361355E-005  2.413443053364784E-005
2.473055096782899E-005  2.534139557673528E-005  2.596732804747863E-005  2.660872105025178E-005
2.726595646019265E-005  2.793942558475952E-005  2.862952939670360E-005  2.933667877280239E-005
3.006129473849052E-005  3.080380871853201E-005  3.156466279388026E-005  3.234430996488699E-005
3.314321442102102E-005  3.396185181721896E-005  3.480070955710444E-005  3.566028708316619E-005
3.654109617411950E-005  3.744366124962175E-005  3.836851968248603E-005  3.931622211864416E-005
4.028733280497390E-005  4.128242992525595E-005  4.230210594441018E-005  4.334696796123733E-005
4.441763806988142E-005  4.551475373020544E-005  4.663896814734372E-005  4.779095066058246E-005
4.897138714189775E-005  5.018098040430234E-005  5.142045062028893E-005  5.269053575060954E-005
5.399199198365152E-005  5.532559418564716E-005  5.669213636203165E-005  5.809243213017385E-005
5.952731520378961E-005  6.099763988932335E-005  6.250428159459054E-005  6.404813734997636E-005
6.563012634251992E-005  6.725119046318179E-005  6.891229486762174E-005  7.061442855085259E-005
7.235860493605835E-005  7.414586247797901E-005  7.597726528118417E-005  7.785390373363068E-005
7.977689515585096E-005  8.174738446619882E-005  8.376654486251395E-005  8.583557852062003E-005
8.795571731007815E-005  9.012822352763782E-005  9.235439064877044E-005  9.463554409779326E-005
9.697304203701044E-005  9.936827617532291E-005  1.018226725968534E-004  1.043376926099967E-004
1.069148336174632E-004  1.095556300078146E-004  1.122616540690075E-004  1.150345169245124E-004
1.178758694925487E-004  1.207874034690147E-004  1.237708523346979E-004  1.268279923873657E-004
1.299606437993346E-004  1.331706717011766E-004  1.364599872921972E-004  1.398305489783140E-004
1.432843635380788E-004  1.468234873174692E-004  1.504500274542091E-004  1.541661431323277E-004
1.579740468676973E-004  1.618760058253288E-004  1.658743431692156E-004  1.699714394454945E-004
1.741697339997986E-004  1.784717264295947E-004  1.828799780724055E-004  1.873971135307929E-004
1.920258222350025E-004  1.967688600442081E-004  2.016290508873001E-004  2.066092884442170E-004
2.117125378687883E-004  2.169418375541467E-004  2.223003009417349E-004  2.277911183749953E-004
2.334175589988567E-004  2.391829727061305E-004  2.450907921319793E-004  2.511445346976272E-004
2.573478047046556E-004  2.637042954808758E-004  2.702177915792491E-004  2.768921710312409E-004
2.837314076557330E-004  2.907395734248123E-004  2.979208408884121E-004  3.052794856583668E-004
3.128198889541254E-004  3.205465402112943E-004  3.284640397544991E-004  3.365771015364422E-004
3.448905559444024E-004  3.534093526762248E-004  3.621385636873154E-004  3.710833862103948E-004
3.802491458497949E-004  3.896412997522724E-004  3.992654398561711E-004  4.091272962206161E-004
4.192327404372517E-004  4.295877891260624E-004  4.401986075174714E-004  4.510715131231571E-004
4.622129794972959E-004  4.736296400908898E-004  4.853282922011328E-004  4.973159010184974E-004
5.095996037736423E-004  5.221867139868477E-004  5.350847258223458E-004  5.483013185501576E-004
5.618443611183384E-004  5.757219168379518E-004  5.899422481838446E-004  6.045138217140062E-004
6.194453131103402E-004  6.347456123441459E-004  6.504238289690631E-004  6.664892975446061E-004
6.829515831939450E-004  6.998204872988399E-004  7.171060533351177E-004  7.348185728524983E-004
7.529685916019436E-004  7.715669158145285E-004  7.906246186351309E-004  8.101530467154262E-004
8.301638269692898E-004  8.506688734954349E-004  8.716803946707771E-004  8.932109004191357E-004
9.152732096594950E-004  9.378804579380939E-004  9.610461052491495E-004  9.847839440488061E-004
1.009108107466819E-003  1.034033077721246E-003  1.059573694740953E-003  1.085745165001054E-003
1.112563070576593E-003  1.140043378419838E-003  1.168202449866798E-003  1.197057050378510E-003
1.226624359522863E-003  1.256921981203080E-003  1.287967954138785E-003  1.319780762606027E-003
1.352379347442391E-003  1.385783117324205E-003  1.420011960322110E-003  1.455086255742078E-003
1.491026886258894E-003  1.527855250349507E-003  1.565593275033137E-003  1.604263428926461E-003
1.643888735620946E-003  1.684492787390781E-003  1.726099759239330E-003  1.768734423292525E-003
1.812422163547872E-003  1.857188990987489E-003  1.903061559064890E-003  1.950067179573793E-003
1.998233838909251E-003  2.047590214730311E-003  2.098165693034156E-003  2.149990385652088E-003
2.203095148177710E-003  2.257511598337704E-003  2.313272134816631E-003  2.370409956546608E-003
2.428959082473308E-003  2.488954371810362E-003  2.550431544794144E-003  2.613427203950465E-003
2.677978855888168E-003  2.744124933628556E-003  2.811904819489075E-003  2.881358868530625E-003
2.952528432583156E-003  3.025455884868080E-003  3.100184645224339E-003  3.176759205961303E-003
3.255225158348509E-003  3.335629219759805E-003  3.418019261487749E-003  3.502444337246595E-003
3.588954712376502E-003  3.677601893772199E-003  3.768438660548521E-003  3.861519095464042E-003
3.956898617122096E-003  4.054634012964792E-003  4.154783473085158E-003  4.257406624870341E-003
4.362564568504667E-003  4.470319913346696E-003  4.580736815206395E-003  4.693881014541942E-003
4.809819875601047E-003  4.928622426528510E-003  5.050359400463681E-003  5.175103277655156E-003
5.302928328613197E-003  5.433910658330126E-003  5.568128251590684E-003  5.705661019405010E-003
5.846590846584268E-003  5.991001640495041E-003  6.138979381015172E-003  6.290612171726434E-003
6.445990292367942E-003  6.605206252589346E-003  6.768354847028452E-003  6.935533211750122E-003
7.106840882080329E-003  7.282379851867650E-003  7.462254634208707E-003  7.646572323673752E-003
7.835442660068435E-003  8.028978093772085E-003  8.227293852688290E-003  8.430508010849594E-003
8.638741558717708E-003  8.852118475218072E-003  9.070765801555870E-003  9.294813716854446E-003
9.524395615660573E-003  9.759648187367553E-003  1.000071149759542E-002  1.024772907158610E-002
1.050084797965425E-002  1.076021892475161E-002  1.102599633219299E-002  1.129833844159817E-002
1.157740740110573E-002  1.186336936391292E-002  1.215639458720160E-002  1.245665753350558E-002
1.276433697458316E-002  1.307961609785529E-002  1.340268261547232E-002  1.373372887607453E-002
1.407295197931347E-002  1.442055389320248E-002  1.477674157436473E-002  1.514172709125162E-002
1.551572775040542E-002  1.589896622584037E-002  1.629167069161873E-002  1.669407495770155E-002
1.710641860915687E-002  1.752894714880315E-002  1.796191214337849E-002  1.840557137331985E-002
1.886018898624100E-002  1.932603565420102E-002  1.980338873485996E-002  2.029253243661091E-002
2.079375798779515E-002  2.130736381009364E-002  2.183365569620307E-002  2.237294699189928E-002
2.292555878259905E-002  2.349182008452928E-002  2.407206804061734E-002  2.466664812122119E-002
2.527591432981375E-002  2.590022941376014E-002  2.653996508027988E-002  2.719550221776482E-002
2.786723112254192E-002  2.855555173127001E-002  2.926087385903139E-002  2.998361744335027E-002
3.072421279420129E-002  3.148310085021812E-002  3.226073344121672E-002  3.305757355721627E-002
3.387409562407984E-002  3.471078578599428E-002  3.556814219490907E-002  3.644667530712173E-002
3.734690818720775E-002  3.826937681943148E-002  3.921463042687220E-002  4.018323179841677E-002
4.117575762383601E-002  4.219279883714472E-002  4.323496096842369E-002  4.430286450434267E-002
4.539714525759900E-002  4.651845474546243E-002  4.766746057767465E-002  4.884484685394550E-002
5.005131457123586E-002  5.128758204114690E-002  5.255438531756244E-002  5.385247863490733E-002
5.518263485718845E-002  5.654564593816186E-002  5.794232339283385E-002  5.937349878063717E-002
6.084002420051948E-002  6.234277279827054E-002  6.388263928638878E-002  6.546054047676245E-002
6.707741582653905E-002  6.873422799745368E-002  7.043196342899219E-002  7.217163292568660E-002
7.395427225895056E-002  7.578094278374753E-002  7.765273207050621E-002  7.957075455264730E-002
8.153615219009690E-002  8.355009514919422E-002  8.561378249937912E-002  8.772844292711332E-002
8.989533546741336E-002  9.211575025345903E-002  9.439100928471891E-002  9.672246721405173E-002
9.911151215423719E-002  1.015595665044466E-001  1.040680877971068E-001  1.066385695656968E-001
1.092725422339697E-001  1.119715740271474E-001  1.147372719056184E-001  1.175712825216870E-001
1.204752931999727E-001  1.234510329420124E-001  1.265002734556790E-001  1.296248302100351E-001
1.328265635162238E-001  1.361073796350743E-001  1.394692319120605E-001  1.429141219402873E-001
1.464441007522130E-001  1.500612700407924E-001  1.537677834108012E-001  1.575658476610472E-001
1.614577240982751E-001  1.654457298835034E-001  1.695322394116256E-001  1.737196857250911E-001
1.780105619625020E-001  1.824074228429752E-001  1.869128861871971E-001  1.915296344760207E-001
1.962604164475787E-001  2.011080487338335E-001  2.060754175375593E-001  2.111654803507379E-001
2.163812677153990E-001  2.217258850279697E-001  2.272025143881611E-001  2.328144164935488E-001
2.385649325809382E-001  2.444574864156985E-001  2.504955863301448E-001  2.566828273125195E-001
2.630228931471304E-001  2.695195586078546E-001  2.761766917054899E-001  2.829982559905918E-001
2.899883129135768E-001  2.971510242425318E-001  3.044906545413152E-001  3.120115737084874E-001
3.197182595790946E-001  3.276153005906987E-001  3.357073985152858E-001  3.439993712586165E-001
3.524961557287010E-001  3.612028107752048E-001  3.701245202013461E-001  3.792665958503352E-001
3.886344807678196E-001  3.982337524427985E-001  4.080701261281308E-001  4.181494582434891E-001
4.284777498621042E-001  4.390611502837133E-001  4.499059606957138E-001  4.610186379248910E-001
4.724057982816436E-001  4.840742214991998E-001  4.960308547702367E-001  5.082828168830510E-001
5.208374024600643E-001  5.337020863008315E-001  5.468845278324581E-001  5.603925756699153E-001
5.742342722889592E-001  5.884178588145114E-001  6.029517799272319E-001  6.178446888914336E-001
6.331054527070444E-001  6.487431573889139E-001  6.647671133764140E-001  6.811868610768010E-001
6.980121765454111E-001  7.152530773060832E-001  7.329198283155397E-001  7.510229480749245E-001
7.695732148923750E-001  7.885816733002171E-001  8.080596406307344E-001  8.280187137543191E-001
8.484707759840548E-001  8.694280041508528E-001  8.909028758533921E-001  9.129081768869564E-001
9.354570088560779E-001  9.585627969748139E-001  9.822392980601022E-001  1.006500608722193E+000
1.031361173757621E+000  1.056835794749441E+000  1.082939638879751E+000  1.109688247960071E+000
1.137097547684682E+000  1.165183857112494E+000  1.193963898383181E+000  1.223454806673233E+000
1.253674140398068E+000  1.284639891665911E+000  1.316370496990061E+000  1.348884848265708E+000
1.382202304017875E+000  1.416342700927111E+000  1.451326365640016E+000  1.487174126871321E+000
1.523907327805046E+000  1.561547838801826E+000  1.600118070420223E+000  1.639640986759606E+000
1.680140119132561E+000  1.721639580075153E+000  1.764164077702995E+000  1.807738930422253E+000
1.852390082003681E+000  1.898144117029184E+000  1.945028276719808E+000
</PP_RAB>
</PP_MESH>
<PP_LOCAL type="real" size="567" columns="4">
-1.114092868403660E+001 -1.114092873790540E+001 -1.114092879039740E+001 -1.114092884154200E+001
-1.114092889136760E+001 -1.114092893990160E+001 -1.114092898717080E+001 -1.114092903320060E+001
-1.114092907801620E+001 -1.114092912164160E+001 -1.114092916409980E+001 -1.114092920541320E+001
-1.114092924560360E+001 -1.114092928469120E+001 -1.114092932269620E+001 -1.114092935963780E+001
-1.114092939553400E+001 -1.114092943040220E+001 -1.114092946425920E+001 -1.114092949712080E+001
-1.114092952900200E+001 -1.114092955991700E+001 -1.114092958987920E+001 -1.114092961890120E+001
-1.114092964699460E+001 -1.114092967417060E+001 -1.114092970043900E+001 -1.114092972580920E+001
-1.114092975028960E+001 -1.114092977388760E+001 -1.114092979660980E+001 -1.114092981846200E+001
-1.114092983944900E+001 -1.114092985957480E+001 -1.114092987884220E+001 -1.114092989725320E+001
-1.114092991480900E+001 -1.114092993150940E+001 -1.114092994735340E+001 -1.114092996233880E+001
-1.114092997646240E+001 -1.114092998972020E+001 -1.114093000210620E+001 -1.114093001361420E+001
-1.114093002423600E+001 -1.114093003396240E+001 -1.114093004278300E+001 -1.114093005068600E+001