<UPF version="2.0.1">
  <PP_INFO>
    Generated using FHI98PP, converted with fhi2upf.x v.5.0.2
    Author: unknown
    Generation date: unknown
    Pseudopotential type: SL
    Element: Al
    Functional: SLA-PZ

    Suggested minimum cutoff for wavefunctions:   0. Ry
    Suggested minimum cutoff for charge density:   0. Ry
    The Pseudo was generated with a Non-Relativistic Calculation
    L component and cutoff radius for Local Potential:  3   0.0000

    Valence configuration: 
    nl pn  l   occ       Rcut    Rcut US       E pseu
    3s  3  0  2.00      0.000      0.000     0.000000
    3p  3  1  1.00      0.000      0.000     0.000000
    3d  3  2  0.00      0.000      0.000     0.000000
    4f  4  3  0.00      0.000      0.000     0.000000

    Generation configuration: not available.
    Comment:
    aluminium, fhi98PP : Trouiller-Martins-type, LDA Ceperley/Alder Perdew/Zunger, l
  </PP_INFO>
  <!--                               -->
  <!-- END OF HUMAN READABLE SECTION -->
  <!--                               -->
  <PP_HEADER generated="Generated using FHI98PP, converted with fhi2upf.x v.5.0.2"
             author="unknown"
             date="unknown"
             comment="aluminium, fhi98PP : Trouiller-Martins-type, LDA Ceperley/Alder Perdew/Zunger, l"
             element="Al"
             pseudo_type="SL"
             relativistic="no"
             is_ultrasoft="F"
             is_paw="F"
             is_coulomb="F"
             has_so="F"
             has_wfc="F"
             has_gipaw="F"
             paw_as_gipaw="F"
             core_correction="F"
             functional="SLA-PZ"
             z_valence="3.000000000000000E+000"
             total_psenergy="0.000000000000000E+000"
             wfc_cutoff="0.000000000000000E+000"
             rho_cutoff="0.000000000000000E+000"
             l_max="2"
             l_max_rho="0"
             l_local="3"
             mesh_size="493"
             number_of_wfc="4"
             number_of_proj="3"/>
  <PP_MESH dx="2.439988682353512E-002" mesh="493" xmin="-5.075173815233828E+000" rmax="7.861960882639301E+001"
zmesh="1.300000000000000E+001">
    <PP_R type="real" size="493" columns="4">
 4.807692307692300E-004  4.926442307692300E-004  5.048125432692300E-004  5.172814130879800E-004 
 5.300582639912500E-004  5.431507031118400E-004  5.565665254787000E-004  5.703137186580199E-004 
 5.844004675088800E-004  5.988351590563500E-004  6.136263874850400E-004  6.287829592559200E-004 
 6.443138983495400E-004  6.602284516387700E-004  6.765360943942499E-004  6.932465359257900E-004 
 7.103697253631600E-004  7.279158575796300E-004  7.458953792618400E-004  7.643189951296100E-004 
 7.831976743093100E-004  8.025426568647500E-004  8.223654604893100E-004  8.426778873634000E-004 
 8.634920311812700E-004  8.848202843514500E-004  9.066753453749300E-004  9.290702264056900E-004 
 9.520182609979100E-004  9.755331120445600E-004  9.996287799120601E-004  1.024319610775900E-003 
 1.049620305162100E-003  1.075545926699600E-003  1.102111911089000E-003  1.129334075292900E-003 
 1.157228626952700E-003  1.185812174038400E-003  1.215101734737100E-003  1.245114747585200E-003 
 1.275869081850500E-003  1.307383048172200E-003  1.339675409462100E-003  1.372765392075800E-003 
 1.406672697260100E-003  1.441417512882400E-003  1.477020525450600E-003  1.513502932429200E-003 
 1.550886454860200E-003  1.589193350295300E-003  1.628446426047500E-003  1.668669052770900E-003 
 1.709885178374400E-003  1.752119342280200E-003  1.795396690034500E-003  1.839742988278400E-003 
 1.885184640088900E-003  1.931748700699000E-003  1.979462893606300E-003  2.028355627078400E-003 
 2.078456011067200E-003  2.129793874540600E-003  2.182399783241700E-003  2.236305057887800E-003 
 2.291541792817600E-003  2.348142875100200E-003  2.406142004115200E-003  2.465573711616900E-003 
 2.526473382293800E-003  2.588877274836500E-003  2.652822543524900E-003  2.718347260350000E-003 
 2.785490437680600E-003  2.854292051491300E-003  2.924793065163200E-003  2.997035453872700E-003 
 3.071062229583400E-003  3.146917466654100E-003  3.224646328080400E-003  3.304295092384000E-003 
 3.385911181165900E-003  3.469543187340700E-003  3.555240904068000E-003  3.643055354398500E-003 
 3.733038821652100E-003  3.825244880546900E-003  3.919728429096400E-003  4.016545721295100E-003 
 4.115754400611100E-003  4.217413534306200E-003  4.321583648603600E-003  4.428326764724100E-003 
 4.537706435812800E-003  4.649787784777300E-003  4.764637543061300E-003  4.882324090374900E-003 
 5.002917495407200E-003  5.126489557543800E-003  5.253113849615100E-003  5.382865761700600E-003 
 5.515822546014600E-003  5.652063362901200E-003  5.791669327964800E-003  5.934723560365500E-003 
 6.081311232306600E-003  6.231519619744500E-003  6.385438154352200E-003  6.543158476764700E-003 
 6.704774491140800E-003  6.870382421072000E-003  7.040080866872500E-003  7.213970864284200E-003 
 7.392155944632000E-003  7.574742196464500E-003  7.761838328717100E-003  7.953555735436400E-003 
 8.150008562101701E-003  8.351313773585599E-003  8.557591223793201E-003  8.768963727020899E-003 
 8.985557131078299E-003  9.207500392215901E-003  9.434925651903700E-003  9.667968315505700E-003 
 9.906767132898699E-003  1.015146428108100E-002  1.040220544882400E-002  1.065913992341000E-002 
 1.092242067951800E-002  1.119220447030200E-002  1.146865192071900E-002  1.175192762316000E-002 
 1.204220023545300E-002  1.233964258126800E-002  1.264443175302600E-002  1.295674921732500E-002 
 1.327678092299300E-002  1.360471741179100E-002  1.394075393186200E-002  1.428509055397900E-002 
 1.463793229066300E-002  1.499948921824200E-002  1.536997660193300E-002  1.574961502400000E-002 
 1.613863051509300E-002  1.653725468881600E-002  1.694572487963000E-002  1.736428428415700E-002 
 1.779318210597500E-002  1.823267370399300E-002  1.868302074448100E-002  1.914449135687000E-002 
 1.961736029338500E-002  2.010190909263100E-002  2.059842624721900E-002  2.110720737552600E-002 
 2.162855539770100E-002  2.216278071602400E-002  2.271020139971000E-002  2.327114337428300E-002 
 2.384594061562800E-002  2.443493534883400E-002  2.503847825195000E-002  2.565692866477300E-002 
 2.629065480279300E-002  2.694003397642200E-002  2.760545281564000E-002  2.828730750018600E-002 
 2.898600399544100E-002  2.970195829412800E-002  3.043559666399300E-002  3.118735590159400E-002 
 3.195768359236300E-002  3.274703837709400E-002  3.355589022500900E-002  3.438472071356600E-002 
 3.523402331519100E-002  3.610430369107700E-002  3.699607999224600E-002  3.790988316805500E-002 
 3.884625728230600E-002  3.980575983717900E-002  4.078896210515700E-002  4.179644946915400E-002 
 4.282882177104200E-002  4.388669366878700E-002  4.497069500240600E-002  4.608147116896600E-002 
 4.721968350683900E-002  4.838600968945800E-002  4.958114412878800E-002  5.080579838876900E-002 
 5.206070160897100E-002  5.334660093871300E-002  5.466426198189900E-002  5.601446925285200E-002 
 5.739802664339700E-002  5.881575790148900E-002  6.026850712165600E-002  6.175713924756100E-002 
 6.328254058697599E-002  6.484561933947400E-002  6.644730613715900E-002  6.808855459874701E-002 
 6.977034189733600E-002  7.149366934220000E-002  7.325956297495199E-002  7.506907418043400E-002 
 7.692328031269000E-002  7.882328533641400E-002  8.077022048422300E-002  8.276524493018300E-002 
 8.480954647995900E-002  8.690434227801400E-002  8.905087953228100E-002  9.125043625672800E-002 
 9.350432203226899E-002  9.581387878646699E-002  9.818048159249200E-002  1.006055394878300E-001 
 1.030904963131800E-001  1.056368315721100E-001  1.082460613119400E-001  1.109197390263500E-001 
 1.136594565803000E-001  1.164668451578300E-001  1.193435762332300E-001  1.222913625661900E-001 
 1.253119592215800E-001  1.284071646143500E-001  1.315788215803200E-001  1.348288184733600E-001 
 1.381590902896500E-001  1.415716198198000E-001  1.450684388293500E-001  1.486516292684400E-001 
 1.523233245113700E-001  1.560857106268000E-001  1.599410276792800E-001  1.638915710629600E-001 
 1.679396928682100E-001  1.720878032820600E-001  1.763383720231300E-001  1.806939298121000E-001 
 1.851570698784600E-001  1.897304495044500E-001  1.944167916072100E-001  1.992188863599100E-001 
 2.041395928530000E-001  2.091818407964700E-001  2.143486322641400E-001  2.196430434810700E-001 
 2.250682266550500E-001  2.306274118534300E-001  2.363239089262100E-001  2.421611094766900E-001 
 2.481424888807600E-001  2.542716083561200E-001  2.605521170825100E-001  2.669877543744500E-001 
 2.735823519075000E-001  2.803398359996100E-001  2.872642299488000E-001  2.943596564285400E-001 
 3.016303399423300E-001  3.090806093389000E-001  3.167149003895700E-001  3.245377584291900E-001 
 3.325538410623900E-001  3.407679209366400E-001  3.491848885837700E-001  3.578097553317900E-001 
 3.666476562884900E-001  3.757038533988100E-001  3.849837385777600E-001  3.944928369206300E-001 
 4.042368099925700E-001  4.142214591993900E-001  4.244527292416100E-001  4.349367116538800E-001 
 4.456796484317300E-001  4.566879357480000E-001  4.679681277609700E-001  4.795269405166700E-001 
 4.913712559474300E-001  5.035081259693300E-001  5.159447766807700E-001  5.286886126647899E-001 
 5.417472213976100E-001  5.551283777661300E-001  5.688400486969500E-001  5.828903978997700E-001 
 5.972877907278900E-001  6.120407991588700E-001  6.271582068980900E-001  6.426490146084800E-001 
 6.585224452693100E-001  6.747879496674600E-001  6.914552120242400E-001  7.085341557612400E-001 
 7.260349494085400E-001  7.439680126589400E-001  7.623440225716100E-001  7.811739199291300E-001 
 8.004689157513800E-001  8.202404979704400E-001  8.405004382703100E-001  8.612607990955899E-001 
 8.825339408332500E-001  9.043325291718300E-001  9.266695426423700E-001  9.495582803456400E-001 
 9.730123698701800E-001  9.970457754059699E-001  1.021672806058500E+000  1.046908124368100E+000 
 1.072766755040000E+000  1.099264093889500E+000  1.126415917008600E+000  1.154238390158700E+000 
 1.182748078395600E+000  1.211961955932000E+000  1.241897416243500E+000  1.272572282424700E+000 
 1.304004817800600E+000  1.336213736800300E+000  1.369218216099300E+000  1.403037906036900E+000 
 1.437692942316000E+000  1.473203957991200E+000  1.509592095753600E+000  1.546879020518700E+000 
 1.585086932325500E+000  1.624238579554000E+000  1.664357272469000E+000  1.705466897099000E+000 
 1.747591929457300E+000  1.790757450114900E+000  1.834989159132700E+000  1.880313391363300E+000 
 1.926757132130000E+000  1.974348033293600E+000  2.023114429715900E+000  2.073085356129900E+000 
 2.124290564426300E+000  2.176760541367700E+000  2.230526526739400E+000  2.285620531949900E+000 
 2.342075359089100E+000  2.399924620458600E+000  2.459202758583900E+000  2.519945066720900E+000 
 2.582187709868900E+000  2.645967746302700E+000  2.711323149636400E+000  2.778292831432400E+000 
 2.846916664368800E+000  2.917235505978700E+000  2.989291222976300E+000  3.063126716183900E+000 
 3.138785946073600E+000  3.216313958941600E+000  3.295756913727500E+000  3.377162109496500E+000 
 3.460578013601100E+000  3.546054290537100E+000  3.633641831513300E+000  3.723392784751700E+000 
 3.815360586535100E+000  3.909599993022500E+000  4.006167112850100E+000  4.105119440537500E+000 
 4.206515890718800E+000  4.310416833219600E+000  4.416884129000100E+000  4.525981166986400E+000 
 4.637772901811000E+000  4.752325892485700E+000  4.869708342030100E+000  4.989990138078200E+000 
 5.113242894488800E+000  5.239539993982600E+000  5.368956631834000E+000  5.501569860640300E+000 
 5.637458636198100E+000  5.776703864512200E+000  5.919388449965700E+000  6.065597344679800E+000 
 6.215417599093400E+000  6.368938413791000E+000  6.526251192611700E+000  6.687449597069200E+000 
 6.852629602116800E+000  7.021889553289100E+000  7.195330225255300E+000  7.373054881819100E+000 
 7.555169337400000E+000  7.741782020033800E+000  7.933004035928600E+000  8.128949235616100E+000 
 8.329734281735799E+000  8.535478718494700E+000  8.746305042841501E+000  8.962338777399699E+000 
 9.183708545201400E+000  9.410546146267899E+000  9.642986636080700E+000  9.881168405991900E+000 
 1.012523326562000E+001  1.037532652728100E+001  1.063159709250500E+001  1.089419754068900E+001 
 1.116328421994400E+001  1.143901734017700E+001  1.172156106847900E+001  1.201108362687100E+001 
 1.230775739245500E+001  1.261175900004800E+001  1.292326944734900E+001  1.324247420269900E+001 
 1.356956331550600E+001  1.390473152939900E+001  1.424817839817500E+001  1.460010840461000E+001 
 1.496073108220400E+001  1.533026113993400E+001  1.570891859009000E+001  1.609692887926600E+001 
 1.649452302258300E+001  1.690193774124100E+001  1.731941560345000E+001  1.774720516885500E+001 
 1.818556113652600E+001  1.863474449659800E+001  1.909502268566400E+001  1.956666974600000E+001 
 2.004996648872600E+001  2.054520066099800E+001  2.105266711732400E+001  2.157266799512200E+001 
 2.210551289460200E+001  2.265151906309800E+001  2.321101158395700E+001  2.378432357008100E+001 
 2.437179636226200E+001  2.497377973240900E+001  2.559063209180000E+001  2.622272070446700E+001 
 2.687042190586800E+001  2.753412132694300E+001  2.821421412371800E+001  2.891110521257400E+001 
 2.962520951132500E+001  3.035695218625400E+001  3.110676890525500E+001  3.187510609721500E+001 
 3.266242121781600E+001  3.346918302189600E+001  3.429587184253700E+001  3.514297987704700E+001 
 3.601101148001000E+001  3.690048346356700E+001  3.781192540511700E+001  3.874587996262300E+001 
 3.970290319770000E+001  4.068356490668300E+001  4.168844895987800E+001  4.271815364918700E+001 
 4.377329204432200E+001  4.485449235781700E+001  4.596239831905500E+001  4.709766955753600E+001 
 4.826098199560700E+001  4.945302825089800E+001  5.067451804869500E+001  5.192617864449800E+001 
 5.320875525701700E+001  5.452301151186600E+001  5.586972989620900E+001  5.724971222464500E+001 
 5.866378011659400E+001  6.011277548547400E+001  6.159756103996500E+001  6.311902079765200E+001 
 6.467806061135400E+001  6.627560870845400E+001  6.791261624355300E+001  6.959005786476899E+001 
 7.130893229402901E+001  7.307026292169100E+001  7.487509841585700E+001  7.672451334672900E+001 
 7.861960882639301E+001
    </PP_R>
    <PP_RAB type="real" size="493" columns="4">
 1.173071481900725E-005  1.202046347503673E-005  1.231736892287014E-005  1.262160793526503E-005 
 1.293336165126600E-005  1.325281568405242E-005  1.358016023144846E-005  1.391559018916514E-005 
 1.425930526683769E-005  1.461151010692859E-005  1.497241440656968E-005  1.534223304241194E-005 
 1.572118619855949E-005  1.610949949766382E-005  1.650740413525617E-005  1.691513701739705E-005 
 1.733294090172683E-005  1.776106454199948E-005  1.819976283618670E-005  1.864929697824057E-005 
 1.910993461360309E-005  1.958194999855908E-005  2.006562416352351E-005  2.056124508036264E-005 
 2.106910783384745E-005  2.158951479734354E-005  2.212277581283791E-005  2.266920837541499E-005 
 2.322913782228773E-005  2.380289752649827E-005  2.439082909540276E-005  2.499328257405951E-005 
 2.561061665363964E-005  2.624319888498444E-005  2.689140589744160E-005  2.755562362310845E-005 
 2.823624752660082E-005  2.893368284050709E-005  2.964834480666644E-005  3.038065892339338E-005 
 3.113106119879986E-005  3.189999841041005E-005  3.268792837114832E-005  3.349532020191533E-005 
 3.432265461090332E-005  3.517042417979204E-005  3.603913365703302E-005  3.692930025836100E-005 
 3.784145397474249E-005  3.877613788791992E-005  3.973390849374925E-005  4.071533603354552E-005 
 4.172100483357553E-005  4.275151365296367E-005  4.380747604019137E-005  4.488952069838526E-005 
 4.599829185963596E-005  4.713444966856662E-005  4.829867057538106E-005  4.949164773859357E-005 
 5.071409143773594E-005  5.196672949624900E-005  5.325030771480506E-005  5.456559031536148E-005 
 5.591336039615020E-005  5.729442039793524E-005  5.870959258176486E-005  6.015971951853578E-005 
 6.164566459064270E-005  6.316831250603264E-005  6.472856982493013E-005  6.632736549960677E-005 
 6.796565142744595E-005  6.964440301770360E-005  7.136461977224247E-005  7.312732588061610E-005 
 7.493357082986840E-005  7.678443002936589E-005  7.868100545108986E-005  8.062442628573213E-005 
 8.261584961499009E-005  8.465646110048040E-005  8.674747568966188E-005  8.889013833919704E-005 
 9.108572475617414E-005  9.333554215765148E-005  9.564093004894526E-005  9.800326102115467E-005 
 1.004239415683775E-004  1.029044129251165E-004  1.054461519243678E-004  1.080506718768995E-004 
 1.107195234722593E-004  1.134542957020222E-004  1.162566168058622E-004  1.191281552409666E-004 
 1.220706206754195E-004  1.250857650061033E-004  1.281753834017533E-004  1.313413153717768E-004 
 1.345854458614596E-004  1.379097063742386E-004  1.413160761216808E-004  1.448065832018856E-004 
 1.483833058069739E-004  1.520483734604044E-004  1.558039682848767E-004  1.596523263015131E-004 
 1.635957387611608E-004  1.676365535085620E-004  1.717771763802240E-004  1.760200726368143E-004 
 1.803677684309432E-004  1.848228523111896E-004  1.893879767632742E-004  1.940658597893268E-004 
 1.988592865261237E-004  2.037711109033186E-004  2.088042573426315E-004  2.139617224989947E-004 
 2.192465770447194E-004  2.246619674977232E-004  2.302111180949186E-004  2.358973327118626E-004 
 2.417239968298458E-004  2.476945795515357E-004  2.538126356664659E-004  2.600818077674288E-004 
 2.665058284192788E-004  2.730885223812326E-004  2.798338088840623E-004  2.867457039634801E-004 
 2.938283228514012E-004  3.010858824258140E-004  3.085227037217482E-004  3.161432145036573E-004 
 3.239519519018994E-004  3.319535651138781E-004  3.401528181721850E-004  3.485545927810382E-004 
 3.571638912227474E-004  3.659858393359401E-004  3.750256895675482E-004  3.842888240998484E-004 
 3.937807580551195E-004  4.035071427790859E-004  4.134737692057353E-004  4.236865713051204E-004 
 4.341516296163403E-004  4.448751748678741E-004  4.558635916870952E-004  4.671234224017743E-004 
 4.786613709351058E-004  4.904843067971880E-004  5.025992691750789E-004  5.150134711237202E-004 
 5.277343038604641E-004  5.407693411658123E-004  5.541263438926129E-004  5.678132645867644E-004 
 5.818382522220626E-004  5.962096570519474E-004  6.109360355811255E-004  6.260261556599753E-004 
 6.414890017047792E-004  6.573337800468876E-004  6.735699244140549E-004  6.902071015470747E-004 
 7.072552169552972E-004  7.247244208140835E-004  7.426251140081923E-004  7.609679543242037E-004 
 7.797638627960024E-004  7.990240302070548E-004  8.187599237531882E-004  8.389832938698741E-004 
 8.597061812284581E-004  8.809409239048201E-004  9.027001647252546E-004  9.249968587939810E-004 
 9.478442812061934E-004  9.712560349519875E-004  9.952460590152937E-004  1.019828636672962E-003 
 1.045018403998782E-003  1.070830358577558E-003  1.097279868434423E-003  1.124382681184767E-003 
 1.152154933410019E-003  1.180613160265249E-003  1.209774305323810E-003  1.239655730665307E-003 
 1.270275227212725E-003  1.301651025324890E-003  1.333801805650409E-003  1.366746710249977E-003 
 1.400505353993140E-003  1.435097836236773E-003  1.470544752791827E-003  1.506867208185787E-003 
 1.544086828227982E-003  1.582225772885206E-003  1.621306749475470E-003  1.661353026187519E-003 
 1.702388445934349E-003  1.744437440548923E-003  1.787525045330473E-003  1.831676913950152E-003 
 1.876919333724703E-003  1.923279241267717E-003  1.970784238527019E-003  2.019462609218629E-003 
 2.069343335666341E-003  2.120456116057300E-003  2.172831382123916E-003  2.226500317262369E-003 
 2.281494875098745E-003  2.337847798513707E-003  2.395592639136978E-003  2.454763777323746E-003 
 2.515396442623657E-003  2.577526734756326E-003  2.641191645104780E-003  2.706429078738992E-003 
 2.773277876983824E-003  2.841777840545241E-003  2.911969753206748E-003  2.983895406110936E-003 
 3.057597622642000E-003  3.133120283921184E-003  3.210508354933929E-003  3.289807911300945E-003 
 3.371066166710031E-003  3.454331501027661E-003  3.539653489103068E-003  3.627082930284037E-003 
 3.716671878662042E-003  3.808473674064973E-003  3.902542973814330E-003  3.998935785267588E-003 
 4.097709499163572E-003  4.198922923793039E-003  4.302636320010804E-003  4.408911437115039E-003 
 4.517811549611808E-003  4.629401494887025E-003  4.743747711810737E-003  4.860918280292508E-003 
 4.980982961815739E-003  5.104013240972610E-003  5.230082368024564E-003  5.359265402514911E-003 
 5.491639257956970E-003  5.627282747628515E-003  5.766276631494946E-003  5.908703664292934E-003 
 6.054648644800866E-003  6.204198466327576E-003  6.357442168445716E-003  6.514470990006373E-003 
 6.675378423459558E-003  6.840260270518881E-003  7.009214699200688E-003  7.182342302271058E-003 
 7.359746157137277E-003  7.541531887218433E-003  7.727807724832707E-003  7.918684575636019E-003 
 8.114276084654202E-003  8.314698703945380E-003  8.520071761932708E-003  8.730517534452469E-003 
 8.946161317553561E-003  9.167131502096996E-003  9.393559650198776E-003  9.625580573558669E-003 
 9.863332413725579E-003  1.010695672434469E-002  1.035659855543588E-002  1.061240653975520E-002 
 1.087453298128713E-002  1.114313394592508E-002  1.141836935438929E-002  1.170040307744281E-002 
 1.198940303345560E-002  1.228554128838192E-002  1.258899415820489E-002  1.289994231391267E-002 
 1.321857088906631E-002  1.354506959002622E-002  1.387963280889979E-002  1.422245973927974E-002 
 1.457375449483985E-002  1.493372623086242E-002  1.530258926876462E-002  1.568056322370328E-002 
 1.606787313532877E-002  1.646474960177134E-002  1.687142891693494E-002  1.728815321118326E-002 
 1.771517059549942E-002  1.815273530920848E-002  1.860110787134579E-002  1.906055523576806E-002 
 1.953135095009154E-002  2.001377531855882E-002  2.050811556892723E-002  2.101466602347981E-002 
 2.153372827425974E-002  2.206561136263393E-002  2.261063196329088E-002  2.316911457278425E-002 
 2.374139170273209E-002  2.432780407778948E-002  2.492870083851095E-002  2.554443974922107E-002 
 2.617538741102702E-002  2.682191948007968E-002  2.748442089123837E-002  2.816328608725165E-002 
 2.885891925360628E-002  2.957173455917106E-002  3.030215640278209E-002  3.105061966593045E-002 
 3.181756997167918E-002  3.260346394998027E-002  3.340876950954558E-002  3.423396611643006E-002 
 3.507954507950561E-002  3.594600984296926E-002  3.683387628609103E-002  3.774367303035714E-002 
 3.867594175420667E-002  3.963123751553704E-002  4.061012908217120E-002  4.161319927050122E-002 
 4.264104529248149E-002  4.369427911120590E-002  4.477352780525176E-002  4.587943394204202E-002 
 4.701265596041111E-002  4.817386856263299E-002  4.936376311612876E-002  5.058304806509756E-002 
 5.183244935230526E-002  5.311271085130891E-002  5.442459480933425E-002  5.576888230112570E-002 
 5.714637369396442E-002  5.855788912420532E-002  6.000426898557253E-002  6.148637442951561E-002 
 6.300508787792450E-002  6.456131354851016E-002  6.615597799315893E-002  6.779003064958949E-002 
 6.946444440663485E-002  7.118021618347850E-002  7.293836752320861E-002  7.473994520103396E-002 
 7.658602184749845E-002  7.847769658713122E-002  8.041609569283439E-002  8.240237325644573E-002 
 8.443771187588082E-002  8.652332335921636E-002  8.866044944618739E-002  9.085036254750875E-002 
 9.309436650243302E-002  9.539379735504269E-002  9.775002414971090E-002  1.001644497462088E-001 
 1.026385116549407E-001  1.051736828928189E-001  1.077714728602709E-001  1.104334282399196E-001 
 1.131611339174465E-001  1.159562139252066E-001  1.188203324091593E-001  1.217551946196645E-001 
 1.247625479267719E-001  1.278441828605613E-001  1.310019341772179E-001  1.342376819513952E-001 
 1.375533526955943E-001  1.409509205071756E-001  1.444324082437041E-001  1.479998887273223E-001 
 1.516554859788874E-001  1.554013764825657E-001  1.592397904816866E-001  1.631730133065840E-001 
 1.672033867352564E-001  1.713333103876176E-001  1.755652431541908E-001  1.799017046600992E-001 
 1.843452767652028E-001  1.888986051013038E-001  1.935644006473052E-001  1.983454413432952E-001 
 2.032445737444741E-001  2.082647147159633E-001  2.134088531694471E-001  2.186800518427328E-001 
 2.240814491232465E-001  2.296162609165913E-001  2.352877825612307E-001  2.410993907904933E-001 
 2.470545457430209E-001  2.531567930228781E-001  2.594097658105471E-001  2.658171870260462E-001 
 2.723828715455892E-001  2.791107284727745E-001  2.860047634660430E-001  2.930690811236681E-001 
 3.003078874274298E-001  3.077254922468717E-001  3.153263119053649E-001  3.231148718094391E-001 
 3.310958091431404E-001  3.392738756289760E-001  3.476539403570079E-001  3.562409926838279E-001 
 3.650401452031217E-001  3.740566367896281E-001  3.832958357183229E-001  3.927632428605844E-001 
 4.024644949592197E-001  4.124053679847172E-001  4.225917805739483E-001  4.330297975541195E-001 
 4.437256335537131E-001  4.546856567024851E-001  4.659163924230372E-001  4.774245273158887E-001 
 4.892169131405862E-001  5.013005708951701E-001  5.136826949962650E-001  5.263706575626751E-001 
 5.393720128044851E-001  5.526945015207395E-001  5.663460557083134E-001  5.803348032843152E-001 
 5.946690729254378E-001  6.093573990266749E-001  6.244085267826458E-001  6.398314173941659E-001 
 6.556352534038181E-001  6.718294441628939E-001  6.884236314337053E-001  7.054276951301219E-001 
 7.228517591998462E-001  7.407061976520646E-001  7.590016407340835E-001  7.777489812602203E-001 
 7.969593810973425E-001  8.166442778104456E-001  8.368153914723676E-001  8.574847316417189E-001 
 8.786646045132679E-001  9.003676202447640E-001  9.226067004648072E-001  9.453950859662784E-001 
 9.687463445896507E-001  9.926743793010104E-001  1.017193436469744E+000  1.042318114350547E+000 
 1.068063371775007E+000  1.094444537057856E+000  1.121477317123183E+000  1.149177806856134E+000 
 1.177562498685477E+000  1.206648292402996E+000  1.236452505225346E+000  1.266992882104418E+000 
 1.298287606292394E+000  1.330355310167833E+000  1.363215086328976E+000  1.396886498961293E+000 
 1.431389595485643E+000  1.466744918494142E+000  1.502973517980942E+000  1.540096963875068E+000 
 1.578137358882782E+000  1.617117351647176E+000  1.657060150232866E+000  1.697989535943624E+000 
 1.739929877481436E+000  1.782906145455215E+000  1.826943927247965E+000  1.872069442250997E+000 
 1.918309557474592E+000
    </PP_RAB>
  </PP_MESH>
  <PP_LOCAL type="real" size="493" columns="4">
-8.152267969295799E+000 -8.152268108600000E+000 -8.152268244287001E+000 -8.152268376431399E+000 
-8.152268505104599E+000 -8.152268630376200E+000 -8.152268752313001E+000 -8.152268870980000E+000 
-8.152268986438999E+000 -8.152269098750400E+000 -8.152269207971599E+000 -8.152269314157801E+000 
-8.152269417362399E+000 -8.152269517635800E+000 -8.152269615026601E+000 -8.152269709581200E+000 
-8.152269801343399E+000 -8.152269890354800E+000 -8.152269976654599E+000 -8.152270060280200E+000 
-8.152270141266200E+000 -8.152270219645001E+000 -8.152270295446600E+000 -8.152270368699000E+000 
-8.152270439427200E+000 -8.152270507654199E+000 -8.152270573400600E+000 -8.152270636684401E+000 
-8.152270697521001E+000 -8.152270755923199E+000 -8.152270811901399E+000 -8.152270865463001E+000 
-8.152270916613199E+000 -8.152270965353800E+000 -8.152271011684199E+000 -8.152271055600600E+000 
-8.152271097096399E+000 -8.152271136162000E+000 -8.152271172783999E+000 -8.152271206946599E+000 
-8.152271238630201E+000 -8.152271267811599E+000 -8.152271294464200E+000 -8.152271318557601E+000 
-8.152271340057800E+000 -8.152271358926599E+000 -8.152271375121799E+000 -8.152271388596599E+000 
-8.152271399300400E+000 -8.152271407177400E+000 -8.152271412167600E+000 -8.152271414205201E+000 
-8.152271413219999E+000 -8.152271409136400E+000 -8.152271401872399E+000 -8.152271391340999E+000 
-8.152271377448599E+000 -8.152271360095799E+000 -8.152271339175799E+000 -8.152271314575399E+000 
-8.152271286173800E+000 -8.152271253843400E+000 -8.152271217447600E+000 -8.152271176842399E+000 
-8.152271131874601E+000 -8.152271082382400E+000 -8.152271028194400E+000 -8.152270969129001E+000 
-8.152270904994801E+000 -8.152270835589000E+000 -8.152270760697601E+000 -8.152270680095000E+000 
-8.152270593542800E+000 -8.152270500789800E+000 -8.152270401570600E+000 -8.152270295606000E+000 
-8.152270182601400E+000 -8.152270062247000E+000 -8.152269934215600E+000 -8.152269798163200E+000 
-8.152269653727600E+000 -8.152269500527400E+000 -8.152269338161400E+000 -8.152269166207200E+000 
-8.152268984220401E+000 -8.152268791733800E+000 -8.152268588255399E+000 -8.152268373268400E+000 
-8.152268146228799E+000 -8.152267906565200E+000 -8.152267653676200E+000 -8.152267386929999E+000 
-8.152267105662400E+000 -8.152266809174799E+000 -8.152266496733599E+000 -8.152266167567200E+000 
-8.152265820865400E+000 -8.152265455775799E+000 -8.152265071403800E+000 -8.152264666808600E+000 
-8.152264241001800E+000 -8.152263792945201E+000 -8.152263321547800E+000 -8.152262825663600E+000 
-8.152262304088200E+000 -8.152261755556600E+000 -8.152261178740201E+000 -8.152260572242801E+000 
-8.152259934597801E+000 -8.152259264264799E+000 -8.152258559625800E+000 -8.152257818980599E+000 
-8.152257040543800E+000 -8.152256222440201E+000 -8.152255362699201E+000 -8.152254459251999E+000 
-8.152253509925000E+000 -8.152252512434799E+000 -8.152251464383600E+000 -8.152250363252600E+000 
-8.152249206395799E+000 -8.152247991034599E+000 -8.152246714249401E+000 -8.152245372974800E+000 
-8.152243963989800E+000 -8.152242483911600E+000 -8.152240929187400E+000 -8.152239296084399E+000 
-8.152237580682201E+000 -8.152235778862600E+000 -8.152233886299999E+000 -8.152231898449800E+000 
-8.152229810539200E+000 -8.152227617553400E+000 -8.152225314225200E+000 -8.152222895020801E+000 
-8.152220354127399E+000 -8.152217685437799E+000 -8.152214882536400E+000 -8.152211938682800E+000 